# LAMMPS data file written by OVITO Basic 3.9.2

250 atoms
1 atom types

-6.6048 9.9072 xlo xhi
-6.6048 9.9072 ylo yhi
-6.6048 9.9072 zlo zhi

Masses

1 92.90638  # Nb

Atoms  # atomic

1 1 -6.6048 -6.6048 -6.6048
2 1 -4.9536 -4.9536 -4.9536
3 1 -6.6048 -6.6048 -3.3024
4 1 -4.9536 -4.9536 -1.6512
5 1 -6.6048 -6.6048 0.0
6 1 -4.9536 -4.9536 1.6512
7 1 -6.6048 -6.6048 3.3024
8 1 -4.9536 -4.9536 4.9536
9 1 -6.6048 -6.6048 6.6048
10 1 -4.9536 -4.9536 8.256
11 1 -6.6048 -3.3024 -6.6048
12 1 -4.9536 -1.6512 -4.9536
13 1 -6.6048 -3.3024 -3.3024
14 1 -4.9536 -1.6512 -1.6512
15 1 -6.6048 -3.3024 0.0
16 1 -4.9536 -1.6512 1.6512
17 1 -6.6048 -3.3024 3.3024
18 1 -4.9536 -1.6512 4.9536
19 1 -6.6048 -3.3024 6.6048
20 1 -4.9536 -1.6512 8.256
21 1 -6.6048 0.0 -6.6048
22 1 -4.9536 1.6512 -4.9536
23 1 -6.6048 0.0 -3.3024
24 1 -4.9536 1.6512 -1.6512
25 1 -6.6048 0.0 0.0
26 1 -4.9536 1.6512 1.6512
27 1 -6.6048 0.0 3.3024
28 1 -4.9536 1.6512 4.9536
29 1 -6.6048 0.0 6.6048
30 1 -4.9536 1.6512 8.256
31 1 -6.6048 3.3024 -6.6048
32 1 -4.9536 4.9536 -4.9536
33 1 -6.6048 3.3024 -3.3024
34 1 -4.9536 4.9536 -1.6512
35 1 -6.6048 3.3024 0.0
36 1 -4.9536 4.9536 1.6512
37 1 -6.6048 3.3024 3.3024
38 1 -4.9536 4.9536 4.9536
39 1 -6.6048 3.3024 6.6048
40 1 -4.9536 4.9536 8.256
41 1 -6.6048 6.6048 -6.6048
42 1 -4.9536 8.256 -4.9536
43 1 -6.6048 6.6048 -3.3024
44 1 -4.9536 8.256 -1.6512
45 1 -6.6048 6.6048 0.0
46 1 -4.9536 8.256 1.6512
47 1 -6.6048 6.6048 3.3024
48 1 -4.9536 8.256 4.9536
49 1 -6.6048 6.6048 6.6048
50 1 -4.9536 8.256 8.256
51 1 -3.3024 -6.6048 -6.6048
52 1 -1.6512 -4.9536 -4.9536
53 1 -3.3024 -6.6048 -3.3024
54 1 -1.6512 -4.9536 -1.6512
55 1 -3.3024 -6.6048 0.0
56 1 -1.6512 -4.9536 1.6512
57 1 -3.3024 -6.6048 3.3024
58 1 -1.6512 -4.9536 4.9536
59 1 -3.3024 -6.6048 6.6048
60 1 -1.6512 -4.9536 8.256
61 1 -3.3024 -3.3024 -6.6048
62 1 -1.6512 -1.6512 -4.9536
63 1 -3.3024 -3.3024 -3.3024
64 1 -1.6512 -1.6512 -1.6512
65 1 -3.3024 -3.3024 0.0
66 1 -1.6512 -1.6512 1.6512
67 1 -3.3024 -3.3024 3.3024
68 1 -1.6512 -1.6512 4.9536
69 1 -3.3024 -3.3024 6.6048
70 1 -1.6512 -1.6512 8.256
71 1 -3.3024 0.0 -6.6048
72 1 -1.6512 1.6512 -4.9536
73 1 -3.3024 0.0 -3.3024
74 1 -1.6512 1.6512 -1.6512
75 1 -3.3024 0.0 0.0
76 1 -1.6512 1.6512 1.6512
77 1 -3.3024 0.0 3.3024
78 1 -1.6512 1.6512 4.9536
79 1 -3.3024 0.0 6.6048
80 1 -1.6512 1.6512 8.256
81 1 -3.3024 3.3024 -6.6048
82 1 -1.6512 4.9536 -4.9536
83 1 -3.3024 3.3024 -3.3024
84 1 -1.6512 4.9536 -1.6512
85 1 -3.3024 3.3024 0.0
86 1 -1.6512 4.9536 1.6512
87 1 -3.3024 3.3024 3.3024
88 1 -1.6512 4.9536 4.9536
89 1 -3.3024 3.3024 6.6048
90 1 -1.6512 4.9536 8.256
91 1 -3.3024 6.6048 -6.6048
92 1 -1.6512 8.256 -4.9536
93 1 -3.3024 6.6048 -3.3024
94 1 -1.6512 8.256 -1.6512
95 1 -3.3024 6.6048 0.0
96 1 -1.6512 8.256 1.6512
97 1 -3.3024 6.6048 3.3024
98 1 -1.6512 8.256 4.9536
99 1 -3.3024 6.6048 6.6048
100 1 -1.6512 8.256 8.256
101 1 0.0 -6.6048 -6.6048
102 1 1.6512 -4.9536 -4.9536
103 1 0.0 -6.6048 -3.3024
104 1 1.6512 -4.9536 -1.6512
105 1 0.0 -6.6048 0.0
106 1 1.6512 -4.9536 1.6512
107 1 0.0 -6.6048 3.3024
108 1 1.6512 -4.9536 4.9536
109 1 0.0 -6.6048 6.6048
110 1 1.6512 -4.9536 8.256
111 1 0.0 -3.3024 -6.6048
112 1 1.6512 -1.6512 -4.9536
113 1 0.0 -3.3024 -3.3024
114 1 1.6512 -1.6512 -1.6512
115 1 0.0 -3.3024 0.0
116 1 1.6512 -1.6512 1.6512
117 1 0.0 -3.3024 3.3024
118 1 1.6512 -1.6512 4.9536
119 1 0.0 -3.3024 6.6048
120 1 1.6512 -1.6512 8.256
121 1 0.0 0.0 -6.6048
122 1 1.6512 1.6512 -4.9536
123 1 0.0 0.0 -3.3024
124 1 1.6512 1.6512 -1.6512
125 1 0.0 0.0 0.0
126 1 1.6512 1.6512 1.6512
127 1 0.0 0.0 3.3024
128 1 1.6512 1.6512 4.9536
129 1 0.0 0.0 6.6048
130 1 1.6512 1.6512 8.256
131 1 0.0 3.3024 -6.6048
132 1 1.6512 4.9536 -4.9536
133 1 0.0 3.3024 -3.3024
134 1 1.6512 4.9536 -1.6512
135 1 0.0 3.3024 0.0
136 1 1.6512 4.9536 1.6512
137 1 0.0 3.3024 3.3024
138 1 1.6512 4.9536 4.9536
139 1 0.0 3.3024 6.6048
140 1 1.6512 4.9536 8.256
141 1 0.0 6.6048 -6.6048
142 1 1.6512 8.256 -4.9536
143 1 0.0 6.6048 -3.3024
144 1 1.6512 8.256 -1.6512
145 1 0.0 6.6048 0.0
146 1 1.6512 8.256 1.6512
147 1 0.0 6.6048 3.3024
148 1 1.6512 8.256 4.9536
149 1 0.0 6.6048 6.6048
150 1 1.6512 8.256 8.256
151 1 3.3024 -6.6048 -6.6048
152 1 4.9536 -4.9536 -4.9536
153 1 3.3024 -6.6048 -3.3024
154 1 4.9536 -4.9536 -1.6512
155 1 3.3024 -6.6048 0.0
156 1 4.9536 -4.9536 1.6512
157 1 3.3024 -6.6048 3.3024
158 1 4.9536 -4.9536 4.9536
159 1 3.3024 -6.6048 6.6048
160 1 4.9536 -4.9536 8.256
161 1 3.3024 -3.3024 -6.6048
162 1 4.9536 -1.6512 -4.9536
163 1 3.3024 -3.3024 -3.3024
164 1 4.9536 -1.6512 -1.6512
165 1 3.3024 -3.3024 0.0
166 1 4.9536 -1.6512 1.6512
167 1 3.3024 -3.3024 3.3024
168 1 4.9536 -1.6512 4.9536
169 1 3.3024 -3.3024 6.6048
170 1 4.9536 -1.6512 8.256
171 1 3.3024 0.0 -6.6048
172 1 4.9536 1.6512 -4.9536
173 1 3.3024 0.0 -3.3024
174 1 4.9536 1.6512 -1.6512
175 1 3.3024 0.0 0.0
176 1 4.9536 1.6512 1.6512
177 1 3.3024 0.0 3.3024
178 1 4.9536 1.6512 4.9536
179 1 3.3024 0.0 6.6048
180 1 4.9536 1.6512 8.256
181 1 3.3024 3.3024 -6.6048
182 1 4.9536 4.9536 -4.9536
183 1 3.3024 3.3024 -3.3024
184 1 4.9536 4.9536 -1.6512
185 1 3.3024 3.3024 0.0
186 1 4.9536 4.9536 1.6512
187 1 3.3024 3.3024 3.3024
188 1 4.9536 4.9536 4.9536
189 1 3.3024 3.3024 6.6048
190 1 4.9536 4.9536 8.256
191 1 3.3024 6.6048 -6.6048
192 1 4.9536 8.256 -4.9536
193 1 3.3024 6.6048 -3.3024
194 1 4.9536 8.256 -1.6512
195 1 3.3024 6.6048 0.0
196 1 4.9536 8.256 1.6512
197 1 3.3024 6.6048 3.3024
198 1 4.9536 8.256 4.9536
199 1 3.3024 6.6048 6.6048
200 1 4.9536 8.256 8.256
201 1 6.6048 -6.6048 -6.6048
202 1 8.256 -4.9536 -4.9536
203 1 6.6048 -6.6048 -3.3024
204 1 8.256 -4.9536 -1.6512
205 1 6.6048 -6.6048 0.0
206 1 8.256 -4.9536 1.6512
207 1 6.6048 -6.6048 3.3024
208 1 8.256 -4.9536 4.9536
209 1 6.6048 -6.6048 6.6048
210 1 8.256 -4.9536 8.256
211 1 6.6048 -3.3024 -6.6048
212 1 8.256 -1.6512 -4.9536
213 1 6.6048 -3.3024 -3.3024
214 1 8.256 -1.6512 -1.6512
215 1 6.6048 -3.3024 0.0
216 1 8.256 -1.6512 1.6512
217 1 6.6048 -3.3024 3.3024
218 1 8.256 -1.6512 4.9536
219 1 6.6048 -3.3024 6.6048
220 1 8.256 -1.6512 8.256
221 1 6.6048 0.0 -6.6048
222 1 8.256 1.6512 -4.9536
223 1 6.6048 0.0 -3.3024
224 1 8.256 1.6512 -1.6512
225 1 6.6048 0.0 0.0
226 1 8.256 1.6512 1.6512
227 1 6.6048 0.0 3.3024
228 1 8.256 1.6512 4.9536
229 1 6.6048 0.0 6.6048
230 1 8.256 1.6512 8.256
231 1 6.6048 3.3024 -6.6048
232 1 8.256 4.9536 -4.9536
233 1 6.6048 3.3024 -3.3024
234 1 8.256 4.9536 -1.6512
235 1 6.6048 3.3024 0.0
236 1 8.256 4.9536 1.6512
237 1 6.6048 3.3024 3.3024
238 1 8.256 4.9536 4.9536
239 1 6.6048 3.3024 6.6048
240 1 8.256 4.9536 8.256
241 1 6.6048 6.6048 -6.6048
242 1 8.256 8.256 -4.9536
243 1 6.6048 6.6048 -3.3024
244 1 8.256 8.256 -1.6512
245 1 6.6048 6.6048 0.0
246 1 8.256 8.256 1.6512
247 1 6.6048 6.6048 3.3024
248 1 8.256 8.256 4.9536
249 1 6.6048 6.6048 6.6048
250 1 8.256 8.256 8.256
